 Gaussian 09, Revision D.01,
 Gaussian 09:  AS64L-G09RevD.01 24-Apr-2013

 ---------------------------------------------
 #P RwB97XD/6-311G(d,p)int(grid=ultrafine) scf
 ---------------------------------------------

 ------------
 frag1_point4
 ------------
 Symbolic Z-matrix:
 Charge =  0 Multiplicity = 1

                         Standard orientation:
 ---------------------------------------------------------------------
 Center     Atomic      Atomic             Coordinates (Angstroms)
 Number     Number       Type             X           Y           Z
 ---------------------------------------------------------------------
      1          1           0       -1.166087    0.747574   -0.686989
      2          1           0       -1.161261    0.241804    0.985065
      3          1           0       -1.164257   -0.978566   -0.285894
      4          6           0       -0.761176   -0.002505   -0.003001
      5          6           0        0.761920   -0.000531    0.000132
      6          1           0        1.158035    0.991294    0.234051
      7          1           0        1.159501   -0.695500    0.743014
      8          1           0        1.169609   -0.288389   -0.972036
 ---------------------------------------------------------------------

 SCF Done:  E(RwB97XD) =  -79.8247215203     A.U. after   10 cycles

 The electronic state is 1-A.
 Alpha  occ. eigenvalues --  -10.26837 -10.26813  -0.85242  -0.71069  -0.52215
 Alpha  occ. eigenvalues --   -0.52013  -0.45291  -0.42480  -0.42262
 Alpha virt. eigenvalues --    0.12851   0.16914   0.18345   0.18390   0.22036
 Alpha virt. eigenvalues --    0.22096   0.30808   0.37812   0.38004   0.41432
 Alpha virt. eigenvalues --    0.41518   0.41609   0.62516   0.65820   0.67207

 Mulliken charges:
               1
     1  H    0.114590
     2  H    0.113832
     3  H    0.115174
     4  C   -0.344146
     5  C   -0.343388
     6  H    0.114211
     7  H    0.114891
     8  H    0.114835
 Sum of Mulliken charges =   0.00000

 Dipole moment (field-independent basis, Debye):
    X=             -0.0001    Y=              0.0087    Z=              0.0077  Tot=              0.0116
 Quadrupole moment (field-independent basis, Debye-Ang):
   XX=            -15.4169   YY=            -14.8082   ZZ=            -14.8845
   XY=             -0.0123   XZ=             -0.0133   YZ=             -0.0020

 1\1\GINC-COMPUTE-0-7\SP\RwB97XD\6-311G(d,p)\C2H6\BERTA\22-Mar-2017\0\\
 #P RwB97XD/6-311G(d,p)int(grid=ultrafine) scf\\frag1_point4\\0,1\H,0,-
 0.153061,1.758125,2.010922\H,0,-0.022223,2.070915,3.724584\H,0,0.84079
 2,0.701368,3.028743\C,0,0.545771,1.73894,2.850968\C,0,1.752808,2.63393
 6,2.602214\H,0,1.447971,3.659019,2.375011\H,0,2.406586,2.672822,3.4762
 78\H,0,2.351265,2.282033,1.758296\\Version=AS64L-G09RevD.01\State=1-A\
 HF=-79.8247215\RMSD=8.756e-09\Dipole=-0.0023999,0.0035866,0.0014714\Qu
 adrupole=-0.1056561,-0.0075646,0.1132207,-0.2119753,0.0598774,0.020808

 Normal termination of Gaussian 09 at Wed Mar 22 22:19:00 2017.
