 Gaussian 09, Revision E.01,
 Gaussian 09:  ES64L-G09RevE.01 30-Nov-2015

 ---------------------------------------------
 #P RwB97XD/6-311G(d,p)int(grid=ultrafine) scf
 ---------------------------------------------

 ------------
 frag1_point3
 ------------
 Symbolic Z-matrix:
 Charge =  0 Multiplicity = 1

                         Standard orientation:
 ---------------------------------------------------------------------
 Center     Atomic      Atomic             Coordinates (Angstroms)
 Number     Number       Type             X           Y           Z
 ---------------------------------------------------------------------
      1          1           0       -1.167206    0.778754   -0.651626
      2          1           0       -1.160963    0.195866    0.995107
      3          1           0       -1.164105   -0.964385   -0.329900
      4          6           0       -0.761096   -0.002542   -0.002893
      5          6           0        0.761979   -0.000065   -0.000400
      6          1           0        1.158415    0.977787    0.285840
      7          1           0        1.160588   -0.735484    0.704764
      8          1           0        1.167972   -0.236894   -0.984428
 ---------------------------------------------------------------------

 SCF Done:  E(RwB97XD) =  -79.8247237869     A.U. after   10 cycles

 The electronic state is 1-A.
 Alpha  occ. eigenvalues --  -10.26836 -10.26811  -0.85243  -0.71072  -0.52216
 Alpha  occ. eigenvalues --   -0.52010  -0.45295  -0.42485  -0.42258
 Alpha virt. eigenvalues --    0.12852   0.16914   0.18340   0.18404   0.22035
 Alpha virt. eigenvalues --    0.22087   0.30810   0.37815   0.38010   0.41424
 Alpha virt. eigenvalues --    0.41507   0.41617   0.62518   0.65821   0.67231

 Mulliken charges:
               1
     1  H    0.114405
     2  H    0.113914
     3  H    0.115215
     4  C   -0.344200
     5  C   -0.343291
     6  H    0.114269
     7  H    0.114459
     8  H    0.115228
 Sum of Mulliken charges =  -0.00000

 Dipole moment (field-independent basis, Debye):
    X=              0.0001    Y=              0.0074    Z=              0.0061  Tot=              0.0096
 Quadrupole moment (field-independent basis, Debye-Ang):
   XX=            -15.4150   YY=            -14.8049   ZZ=            -14.8883
   XY=             -0.0112   XZ=             -0.0164   YZ=              0.0036

 Normal termination of Gaussian 09 at Wed Mar 22 22:16:11 2017.
