 Gaussian 09, Revision E.01,
 Gaussian 09:  ES64L-G09RevE.01 30-Nov-2015

 ---------------------------------------------
 #P RwB97XD/6-311G(d,p)int(grid=ultrafine) scf
 ---------------------------------------------

 ------------
 frag1_point1
 ------------
 Symbolic Z-matrix:
 Charge =  0 Multiplicity = 1

                         Standard orientation:
 ---------------------------------------------------------------------
 Center     Atomic      Atomic             Coordinates (Angstroms)
 Number     Number       Type             X           Y           Z
 ---------------------------------------------------------------------
      1          1           0       -1.166297    0.778602   -0.651993
      2          1           0       -1.161319    0.194180    0.995618
      3          1           0       -1.163999   -0.963575   -0.331732
      4          6           0       -0.761208   -0.002199   -0.002837
      5          6           0        0.761941   -0.000577    0.000105
      6          1           0        1.158095    0.973596    0.301019
      7          1           0        1.160372   -0.745264    0.694029
      8          1           0        1.168748   -0.220879   -0.990549
 ---------------------------------------------------------------------

 SCF Done:  E(RwB97XD) =  -79.8247526542     A.U. after   10 cycles

 The electronic state is 1-A.
 Alpha  occ. eigenvalues --  -10.26851 -10.26823  -0.85236  -0.71058  -0.52202
 Alpha  occ. eigenvalues --   -0.52016  -0.45287  -0.42469  -0.42269
 Alpha virt. eigenvalues --    0.12847   0.16911   0.18351   0.18393   0.22018
 Alpha virt. eigenvalues --    0.22071   0.30801   0.37827   0.38004   0.41422
 Alpha virt. eigenvalues --    0.41506   0.41573   0.62486   0.65793   0.67205

 Mulliken charges:
               1
     1  H    0.114523
     2  H    0.113912
     3  H    0.115153
     4  C   -0.344005
     5  C   -0.343427
     6  H    0.114205
     7  H    0.114836
     8  H    0.114802
 Sum of Mulliken charges =  -0.00000

 Dipole moment (field-independent basis, Debye):
    X=             -0.0012    Y=              0.0077    Z=              0.0075  Tot=              0.0108
 Quadrupole moment (field-independent basis, Debye-Ang):
   XX=            -15.4199   YY=            -14.8123   ZZ=            -14.8825
   XY=             -0.0105   XZ=             -0.0126   YZ=             -0.0009

 Normal termination of Gaussian 09 at Wed Mar 22 22:16:11 2017.
