 Gaussian 09, Revision D.01,
 Gaussian 09:  AS64L-G09RevD.01 24-Apr-2013

 ---------------------------------------------
 #P RwB97XD/6-311G(d,p)int(grid=ultrafine) scf
 ---------------------------------------------

 ------------
 frag1_point2
 ------------
 Symbolic Z-matrix:
 Charge =  0 Multiplicity = 1

                         Standard orientation:
 ---------------------------------------------------------------------
 Center     Atomic      Atomic             Coordinates (Angstroms)
 Number     Number       Type             X           Y           Z
 ---------------------------------------------------------------------
      1          1           0       -1.165883    0.760725   -0.672616
      2          1           0       -1.161197    0.221301    0.989958
      3          1           0       -1.164438   -0.972039   -0.306070
      4          6           0       -0.761196   -0.002326   -0.002784
      5          6           0        0.761939   -0.000658    0.000113
      6          1           0        1.157608    0.983072    0.268512
      7          1           0        1.160075   -0.721303    0.718528
      8          1           0        1.169378   -0.253853   -0.982286
 ---------------------------------------------------------------------

 SCF Done:  E(RwB97XD) =  -79.8247462793     A.U. after   10 cycles

 The electronic state is 1-A.
 Alpha  occ. eigenvalues --  -10.26845 -10.26820  -0.85239  -0.71061  -0.52203
 Alpha  occ. eigenvalues --   -0.52019  -0.45287  -0.42468  -0.42272
 Alpha virt. eigenvalues --    0.12848   0.16912   0.18351   0.18392   0.22024
 Alpha virt. eigenvalues --    0.22077   0.30803   0.37826   0.38004   0.41428
 Alpha virt. eigenvalues --    0.41510   0.41576   0.62496   0.65803   0.67208

 Mulliken charges:
               1
     1  H    0.114538
     2  H    0.113917
     3  H    0.115134
     4  C   -0.344040
     5  C   -0.343418
     6  H    0.114180
     7  H    0.114883
     8  H    0.114805
 Sum of Mulliken charges =   0.00000

 Dipole moment (field-independent basis, Debye):
    X=             -0.0010    Y=              0.0083    Z=              0.0074  Tot=              0.0111
 Quadrupole moment (field-independent basis, Debye-Ang):
   XX=            -15.4192   YY=            -14.8123   ZZ=            -14.8815
   XY=             -0.0114   XZ=             -0.0127   YZ=             -0.0016

 1\1\GINC-COMPUTE-0-5\SP\RwB97XD\6-311G(d,p)\C2H6\BERTA\22-Mar-2017\0\\
 #P RwB97XD/6-311G(d,p)int(grid=ultrafine) scf\\frag1_point2\\0,1\H,0,-
 0.149507,1.764804,2.023226\H,0,-0.008495,2.061402,3.739996\H,0,0.85100
 6,0.700172,3.024405\C,0,0.553909,1.739136,2.859432\C,0,1.758468,2.6378
 05,2.611672\H,0,1.450874,3.668037,2.410859\H,0,2.42578,2.657607,3.4766
 95\H,0,2.343355,2.303386,1.750688\\Version=AS64L-G09RevD.01\State=1-A\
 HF=-79.8247463\RMSD=9.007e-09\Dipole=-0.0025809,0.0032277,0.0014341\Qu
 adrupole=-0.1063603,-0.0092666,0.1156269,-0.2116116,0.0591953,0.022551

 Normal termination of Gaussian 09 at Wed Mar 22 22:19:59 2017.
